# vtk DataFile Version 3.0
#This file was generated by the deal.II library on 2023/4/5 at 11:15:08
ASCII
DATASET UNSTRUCTURED_GRID

POINTS 64 double
0 0 0
0.25 0 0
0 0.25 0
0.25 0.25 0
0.25 0 0
0.5 0 0
0.25 0.25 0
0.5 0.25 0
0 0.25 0
0.25 0.25 0
0 0.5 0
0.25 0.5 0
0.25 0.25 0
0.5 0.25 0
0.25 0.5 0
0.5 0.5 0
0.5 0 0
0.75 0 0
0.5 0.25 0
0.75 0.25 0
0.75 0 0
1 0 0
0.75 0.25 0
1 0.25 0
0.5 0.25 0
0.75 0.25 0
0.5 0.5 0
0.75 0.5 0
0.75 0.25 0
1 0.25 0
0.75 0.5 0
1 0.5 0
0 0.5 0
0.25 0.5 0
0 0.75 0
0.25 0.75 0
0.25 0.5 0
0.5 0.5 0
0.25 0.75 0
0.5 0.75 0
0 0.75 0
0.25 0.75 0
0 1 0
0.25 1 0
0.25 0.75 0
0.5 0.75 0
0.25 1 0
0.5 1 0
0.5 0.5 0
0.75 0.5 0
0.5 0.75 0
0.75 0.75 0
0.75 0.5 0
1 0.5 0
0.75 0.75 0
1 0.75 0
0.5 0.75 0
0.75 0.75 0
0.5 1 0
0.75 1 0
0.75 0.75 0
1 0.75 0
0.75 1 0
1 1 0

CELLS 16 80
4	0	1	3	2
4	4	5	7	6
4	8	9	11	10
4	12	13	15	14
4	16	17	19	18
4	20	21	23	22
4	24	25	27	26
4	28	29	31	30
4	32	33	35	34
4	36	37	39	38
4	40	41	43	42
4	44	45	47	46
4	48	49	51	50
4	52	53	55	54
4	56	57	59	58
4	60	61	63	62

CELL_TYPES 16
 9 9 9 9 9 9 9 9 9 9 9 9 9 9 9 9
POINT_DATA 64
SCALARS solution double 1
LOOKUP_TABLE default
0.0665304 0.0530923 0.0329799 0.0314118 0.0530923 0.0464986 0.0314118 0.0310267 0.0329799 0.0314118 0.0330834 0.0314343 0.0314118 0.0310267 0.0314343 0.0300613 0.0464986 0.0427851 0.0310267 -0.000871787 0.0427851 0.0511749 -0.000871787 0.0170817 0.0310267 -0.000871787 0.0300613 -0.0674451 -0.000871787 0.0170817 -0.0674451 -0.0563364 0.0330834 0.0314343 0.0394569 -0.00380717 0.0314343 0.0300613 -0.00380717 -0.0681528 0.0394569 -0.00380717 0.0482771 0.0147958 -0.00380717 -0.0681528 0.0147958 -0.0575922 0.0300613 -0.0674451 -0.0681528 -0.174132 -0.0674451 -0.0563364 -0.174132 -0.17424 -0.0681528 -0.174132 -0.0575922 -0.17454 -0.174132 -0.17424 -0.17454 -0.174618 
