# vtk DataFile Version 3.0
#This file was generated by the deal.II library on 2023/4/5 at 14:04:43
ASCII
DATASET UNSTRUCTURED_GRID

POINTS 16 double
0 0 0
0.5 0 0
0 0.5 0
0.5 0.5 0
0.5 0 0
1 0 0
0.5 0.5 0
1 0.5 0
0 0.5 0
0.5 0.5 0
0 1 0
0.5 1 0
0.5 0.5 0
1 0.5 0
0.5 1 0
1 1 0

CELLS 4 20
4	0	1	3	2
4	4	5	7	6
4	8	9	11	10
4	12	13	15	14

CELL_TYPES 4
 9 9 9 9
POINT_DATA 16
SCALARS solution double 1
LOOKUP_TABLE default
-0.0727498 -0.0727446 -0.0727502 -0.0739402 -0.0727446 -0.0706962 -0.0739402 -0.0719539 -0.0727502 -0.0739402 -0.0706976 -0.0719539 -0.0739402 -0.0719539 -0.0719539 -0.0721704 
